27
Lattice="50.0 0.0 0.0 0.0 50.0 0.0 0.0 0.0 50.0" Properties=species:S:1:pos:R:3:momenta:R:3:forces:R:3 dihedrals="199.6 170.49 260.67" energy=-17664.228515625 free_energy=-17664.228515625 stress="-2.3868764742474013e-07 3.673589219488349e-07 -3.575532332433795e-07 3.673589219488349e-07 6.618933525714965e-07 4.194886855657387e-07 -3.575532332433795e-07 4.194886855657387e-07 1.1374248742868076e-06" pbc="F F F"
C        1.38963128       1.30881270      -1.84807340       0.00000000       0.00000000       0.00000000       1.55306435      -0.36054334       0.28815407
C        0.25134028       1.61695797      -1.17378268       0.00000000       0.00000000       0.00000000      -0.22700751       0.88175875       0.07196373
C        2.34174165       2.30279245      -2.05237245       0.00000000       0.00000000       0.00000000      -0.06277692       1.88167751      -0.36300945
H        1.74670811       0.30770268      -2.08813647       0.00000000       0.00000000       0.00000000      -0.59252596      -0.21441162      -0.14648847
C        0.05520299       2.95681402      -0.72831891       0.00000000       0.00000000       0.00000000       0.58309883      -0.30503106      -0.80781811
O       -0.81096017       0.83736826      -0.91802960       0.00000000       0.00000000       0.00000000      -0.27544689      -2.30890751       0.25276518
N       -1.10099896       3.26937222      -0.10832467       0.00000000       0.00000000       0.00000000      -0.04947269      -0.86648375      -0.12702633
N        0.91391981       3.92808926      -0.99610811       0.00000000       0.00000000       0.00000000       0.66502130       0.20488715      -0.20853199
H       -1.73558122       2.55577479       0.18972739       0.00000000       0.00000000       0.00000000      -0.31432244      -0.05373117       0.23278019
H       -1.19481836       4.21421525       0.12159553       0.00000000       0.00000000       0.00000000      -0.37866220       1.41230500       0.52313364
C        2.07766676       3.62803433      -1.63042725       0.00000000       0.00000000       0.00000000      -1.25953901      -2.18225050       0.58474374
H        2.81650095       4.38833396      -1.67628005       0.00000000       0.00000000       0.00000000       0.55618048       0.62564474      -0.21949227
H        3.23433192       2.10381485      -2.63100063       0.00000000       0.00000000       0.00000000       0.20997524      -0.16862047       0.03858864
C       -0.57931678      -0.63039174      -0.91326348       0.00000000       0.00000000       0.00000000      -1.24053991       1.50346303      -4.04117012
C       -1.77506852      -1.28327640      -0.40022312       0.00000000       0.00000000       0.00000000      -3.23862576      -1.12889934       0.67621940
H        0.20195626      -0.97701420      -0.35217348       0.00000000       0.00000000       0.00000000       2.40640593      -0.35140282       1.57079506
H       -0.31077873      -0.89430482      -2.04282024       0.00000000       0.00000000       0.00000000      -0.76618707       0.59865451       2.20562792
C       -3.00526392      -1.38331587      -1.13839590       0.00000000       0.00000000       0.00000000       1.78326035       1.04316485      -3.48903441
C       -1.88488065      -1.72681611       0.94414745       0.00000000       0.00000000       0.00000000       1.10778296       1.62189829       0.35012758
C       -4.15739837      -2.00672026      -0.71479091       0.00000000       0.00000000       0.00000000      -0.61510175      -0.60374671       0.70987511
H       -2.95735117      -1.01520162      -2.24735924       0.00000000       0.00000000       0.00000000      -0.24584694      -0.57488340       2.21407723
C       -4.19469156      -2.42753431       0.61887066       0.00000000       0.00000000       0.00000000      -1.29789686      -0.86211812      -0.57902753
H       -5.04818305      -2.24955496      -1.33679401       0.00000000       0.00000000       0.00000000       0.89293069       0.51291335       0.14572448
C       -3.08464301      -2.27809040       1.38882121       0.00000000       0.00000000       0.00000000       0.53687239       0.17016523       0.80549920
H       -5.07725553      -2.96292210       1.05906295       0.00000000       0.00000000       0.00000000       0.75153738       0.70898116      -0.62633288
H       -3.24228124      -2.56751763       2.40845989       0.00000000       0.00000000       0.00000000       0.49074829      -0.19176480       0.75262797
H       -1.09224915      -1.37255578       1.68160820       0.00000000       0.00000000       0.00000000      -0.97292691      -0.99271858      -0.81477088
27
Lattice="50.0 0.0 0.0 0.0 50.0 0.0 0.0 0.0 50.0" Properties=species:S:1:pos:R:3:momenta:R:3:forces:R:3 dihedrals="199.6 170.49 260.67" energy=-17664.8046875 free_energy=-17664.8046875 stress="-1.3548617516789818e-07 -1.367652998851554e-06 -1.270837174160988e-06 -1.367652998851554e-06 1.4861566342005972e-06 -2.876932683193445e-07 -1.270837174160988e-06 -2.876932683193445e-07 -5.1048951732468595e-09" pbc="F F F"
C        1.42867273       1.30255172      -1.82746725      -0.12488443      -0.01776890      -0.55445221      -0.17203142      -0.15899333      -0.33055091
C        0.24582098       1.61443262      -1.16542410      -0.17164924       0.20179678       0.39351329       0.26046014       0.98540264      -0.13926265
C        2.36391720       2.30465584      -2.08602414      -0.00526102       0.08013796       0.56139509       0.10580608       0.87952024       0.33636636
H        1.66703830       0.33118520      -2.26641266       0.05663573      -0.09190357       0.13661430      -0.35880482      -0.12598890       0.35978571
C        0.01140687       2.98844050      -0.76504433      -0.48039491      -0.00907163      -0.15873990       1.00374329      -0.91118455      -0.26249725
O       -0.82242993       0.80469118      -0.91329277       0.02061543       0.90405913      -0.36649012       0.21146965      -0.92500114      -0.03805199
N       -1.13084674       3.31045319      -0.09779743      -0.19179310       0.17022983      -0.11430173      -0.48673075      -0.14928125      -0.16294381
N        0.92206652       3.92304151      -0.98260320       0.01051471      -0.36767672       0.12433823       0.90080136      -0.07576555      -0.43675524
H       -1.68109224       2.54472405       0.25390857       0.03028834       0.08618320       0.09749863      -0.16830671       0.00780872       0.18875784
H       -1.26395337       4.23380434       0.28535857       0.06263146      -0.21545506       0.04261311       0.12477790      -0.02120817       0.05457866
C        2.07963417       3.57713138      -1.61018431       0.29257514       0.10258176      -0.27236688      -0.27310565       0.51607144      -0.15395907
H        2.77749291       4.41247597      -1.82975115       0.06906874       0.09776651       0.03671727      -0.48844063      -0.61221814       0.29336640
H        3.29324628       2.13504179      -2.64469917      -0.13190596      -0.19492783      -0.10591715      -0.40190816      -0.15309966       0.22250780
C       -0.59895524      -0.63017197      -0.92365382      -0.26235746      -0.93579217      -0.03778820       1.58288002       0.76653254       2.68072248
C       -1.83414495      -1.24156188      -0.38987360      -0.04047876       0.56391513       0.07096480      -1.89889979      -0.87343907       0.24080241
H        0.33265738      -0.91644902      -0.29022734       0.15300306      -0.29461125       0.13891035      -1.52833319       0.81764686      -0.87026608
H       -0.41121041      -1.00914455      -1.87701846      -0.01006388       0.24049872       0.28122513       0.31360373      -0.38792664      -1.99838197
C       -2.96279281      -1.38919558      -1.24278256       0.74648711       0.61656361      -0.43763445       0.38297582      -0.65158725       2.93639994
C       -1.92840343      -1.72567007       0.92986350       0.56135104      -0.51178894      -0.43049625      -0.16748458      -0.23208225      -0.76142490
C       -4.10185852      -1.99469165      -0.71621694      -0.33956443      -0.33890407       0.47170948       0.46047214      -0.08629909       1.34882689
H       -2.98841311      -1.01108751      -2.20346806       0.02128830      -0.34599447       0.14721535       0.06695054       0.72854501      -2.10183740
C       -4.15304896      -2.41682653       0.62766327       0.23216447       0.50527119      -0.15760162      -0.10610162       0.52962565      -0.99990535
H       -4.99418608      -2.10804002      -1.28943413       0.01244809      -0.07896991       0.04455052      -0.54605067      -0.08654694      -0.69259012
C       -3.08788393      -2.29434768       1.48116190      -0.26608300      -0.15325397      -0.11326199       0.85426241       0.13993424      -0.61099279
H       -5.05614768      -2.80525176       1.02604518       0.14745805       0.00351182       0.04097926      -0.97543955      -0.46838820       0.19450060
H       -3.14857799      -2.71591648       2.49897558      -0.14669574      -0.04455975       0.06520772       0.20801216       0.43385690      -0.43737751
H       -1.03046342      -1.75942467       1.47726705      -0.24539788       0.02816246       0.09559820       1.09542227       0.11406564       1.14018178
27
Lattice="50.0 0.0 0.0 0.0 50.0 0.0 0.0 0.0 50.0" Properties=species:S:1:pos:R:3:momenta:R:3:forces:R:3 dihedrals="199.6 170.49 260.67" energy=-17664.927734375 free_energy=-17664.927734375 stress="2.720465772654279e-06 9.8581062957237e-07 1.0857344250325696e-06 9.8581062957237e-07 -1.0032237014456769e-06 7.054395609884523e-07 1.0857344250325696e-06 7.054395609884523e-07 1.6417445181104995e-07" pbc="F F F"
C        1.40397615       1.28718736      -1.79538115       0.50813686      -0.34432281       0.18018671      -0.66024131       0.64047140      -0.48308572
C        0.19312926       1.64187809      -1.19394542      -0.43510229       0.27909427      -0.10563479       1.81038487       0.29378101      -0.08954990
C        2.33272878       2.30461202      -2.08393516      -0.02487928       0.19410752      -0.08785397      -0.14988874      -0.64358234       0.90695196
H        1.60661524       0.29307272      -2.17683174       0.02883758       0.01694925      -0.12888402      -0.00640056      -0.24379307       0.15492946
C        0.02102424       2.99037948      -0.75711052      -0.13837586      -0.05954342      -0.13863703       0.59418821      -0.62502694      -1.17825890
O       -0.82341585       0.79182650      -0.91914937      -0.86138421       0.87677136       0.24294292      -1.26607609       1.51698756      -0.24191099
N       -1.14381521       3.31396086      -0.16201622       0.66588162      -0.01759734      -0.32089029      -0.49097508       0.76195556       1.98889959
N        0.93427189       3.93231450      -0.96564797      -0.33681572       0.33377804       0.30601091       0.43611091      -0.50654685      -0.23101455
H       -1.52566193       2.52574741       0.37330655       0.00732776      -0.01475722      -0.10665323      -0.00575092       0.47995478      -0.41631290
H       -0.89458148       4.11289315       0.44172793       0.05668100      -0.03070965      -0.05353214      -0.35980022      -0.72439080      -0.74350578
C        2.06515364       3.56229569      -1.62451505      -0.10762421      -0.22347529       0.21847598      -0.84475154       0.53443766       0.48661157
H        2.80588053       4.33453760      -1.73717919      -0.12945368      -0.11202795      -0.05621971       0.27240795       0.35140479      -0.11867827
H        3.30849783       2.06094929      -2.47527451      -0.06610993      -0.19486118       0.05577775       0.15559089      -0.04210311      -0.41809651
C       -0.59376801      -0.55572575      -0.90205301       0.43012866      -0.08782468       0.57684625       0.76235586      -1.89259589       0.10289269
C       -1.81050928      -1.26416531      -0.35078088       0.87174525      -0.16693191      -0.48764392      -0.45806882       0.14118636      -0.88642031
H        0.30578729      -0.72734169      -0.30378366      -0.29875090       0.18637389      -0.19386269       0.11807853      -0.14852497       0.34859630
H       -0.39790229      -1.04166364      -1.86725665       0.06093613      -0.33616973      -0.33151455      -0.10419439       0.43089080      -0.27345920
C       -2.92432594      -1.44035909      -1.16762419       0.86935514      -0.35731230       0.44873525      -1.51860392       0.32279837      -1.58367562
C       -1.84219429      -1.74453983       0.92817035      -0.20548025       0.30862408      -0.14856579      -0.63579655      -1.25602245       1.44754100
C       -4.15723967      -1.99242064      -0.73089429      -0.66065314      -0.39637842       0.30686904       1.09409988      -0.00884343      -0.08170418
H       -2.96390976      -1.09208024      -2.22825882      -0.12190935       0.27901101      -0.30327667       0.47512865      -0.20602772       0.80160880
C       -4.20592408      -2.38881389       0.59848358       0.41208924       0.05257432      -0.37358146      -0.22089989      -0.06082015       0.92795813
H       -4.99845373      -2.14143176      -1.44291254      -0.13934092       0.07823055       0.03784340       0.63627052       0.17799078       0.69799668
C       -3.06602244      -2.29105390       1.41001179      -0.36269776      -0.00015770       0.24194284       0.62630570       0.46532640      -0.08554865
H       -5.14874433      -2.74666991       1.06208809      -0.05097400       0.09762066       0.17242550       0.61636430       0.17632656      -0.49251175
H       -3.09247285      -2.59077791       2.45941128      -0.17306124      -0.12427685      -0.10820105      -0.18874471      -0.09479362      -0.20454901
H       -0.93193092      -1.78910809       1.56320113       0.20149347      -0.23678871       0.15689509      -0.68709391       0.15955946      -0.33570436
27
Lattice="50.0 0.0 0.0 0.0 50.0 0.0 0.0 0.0 50.0" Properties=species:S:1:pos:R:3:momenta:R:3:forces:R:3 dihedrals="199.6 170.49 260.67" energy=-17660.06640625 free_energy=-17660.06640625 stress="-9.840825896390015e-07 -3.7228676319500664e-07 -7.146656457734935e-07 -3.7228676319500664e-07 5.333553758646303e-07 2.791409769997699e-07 -7.146656457734935e-07 2.791409769997699e-07 1.1739351748474292e-06" pbc="F F F"
C        1.38963128       1.30881270      -1.84807340       0.00000000       0.00000000       0.00000000       1.33643341      -0.63405836       0.13303688
C        0.25134028       1.61695797      -1.17378268       0.00000000       0.00000000       0.00000000      -0.24056904       0.90240252       0.22393149
C        2.34174165       2.30279245      -2.05237245       0.00000000       0.00000000       0.00000000       0.12930191       2.48132753      -0.12278521
H        1.74670811       0.30770268      -2.08813647       0.00000000       0.00000000       0.00000000      -0.72826755      -0.15539339      -0.18963090
C        0.05520299       2.95681402      -0.72831891       0.00000000       0.00000000       0.00000000       0.62654495      -0.28866553      -1.11319900
O       -0.81096017       0.83736826      -0.91802960       0.00000000       0.00000000       0.00000000      -0.22030985      -2.76539779       0.78474510
N       -1.10099896       3.26937222      -0.10832467       0.00000000       0.00000000       0.00000000      -0.01805109      -0.84087420      -0.18504250
N        0.91391981       3.92808926      -0.99610811       0.00000000       0.00000000       0.00000000       0.94042015       0.35197666       0.01716517
H       -1.73558122       2.55577479       0.18972739       0.00000000       0.00000000       0.00000000      -0.11989883      -0.00891922       0.05625674
H       -1.19481836       4.21421525       0.12159553       0.00000000       0.00000000       0.00000000      -0.49240625       1.38332748       0.62749815
C        2.07766676       3.62803433      -1.63042725       0.00000000       0.00000000       0.00000000      -1.41388798      -2.76523876       0.49796015
H        2.81650095       4.38833396      -1.67628005       0.00000000       0.00000000       0.00000000       0.50429779       0.86162657      -0.35319242
H        3.23433192       2.10381485      -2.63100063       0.00000000       0.00000000       0.00000000       0.24304298      -0.17163332       0.12565109
C       -0.57931678      -0.63039174      -0.91326348       0.00000000       0.00000000       0.00000000      -1.09511280       1.92091680      -4.72473335
C       -1.77506852      -1.28327640      -0.40022312       0.00000000       0.00000000       0.00000000      -3.78909349      -0.96534133       1.27254641
H        0.20195626      -0.97701420      -0.35217348       0.00000000       0.00000000       0.00000000       2.76245928      -0.09623215       1.80509949
H       -0.31077873      -0.89430482      -2.04282024       0.00000000       0.00000000       0.00000000      -0.80348396       0.28184223       2.20509076
C       -3.00526392      -1.38331587      -1.13839590       0.00000000       0.00000000       0.00000000       1.77867651       0.72236532      -3.39212132
C       -1.88488065      -1.72681611       0.94414745       0.00000000       0.00000000       0.00000000       1.09012294       1.66916537      -0.15626657
C       -4.15739837      -2.00672026      -0.71479091       0.00000000       0.00000000       0.00000000      -0.91417098      -0.59408003       0.58707356
H       -2.95735117      -1.01520162      -2.24735924       0.00000000       0.00000000       0.00000000      -0.15215772      -0.62411493       2.05433893
C       -4.19469156      -2.42753431       0.61887066       0.00000000       0.00000000       0.00000000      -1.39687085      -0.98051351      -0.73097301
H       -5.04818305      -2.24955496      -1.33679401       0.00000000       0.00000000       0.00000000       0.91252124       0.66112846       0.10027686
C       -3.08464301      -2.27809040       1.38882121       0.00000000       0.00000000       0.00000000       0.57423478       0.20576650       1.20953071
H       -5.07725553      -2.96292210       1.05906295       0.00000000       0.00000000       0.00000000       0.74365664       0.69691730      -0.60020113
H       -3.24228124      -2.56751763       2.40845989       0.00000000       0.00000000       0.00000000       0.56909925      -0.16855466       0.74899107
H       -1.09224915      -1.37255578       1.68160820       0.00000000       0.00000000       0.00000000      -0.82653046      -1.07974529      -0.88104671
27
Lattice="50.0 0.0 0.0 0.0 50.0 0.0 0.0 0.0 50.0" Properties=species:S:1:pos:R:3:momenta:R:3:forces:R:3 dihedrals="199.6 170.49 260.67" energy=-17660.74609375 free_energy=-17660.74609375 stress="-1.1223702358620358e-06 -1.1435203077780898e-06 -2.022658009082079e-06 -1.1435203077780898e-06 2.0125073660892667e-06 -8.789048138169164e-07 -2.022658009082079e-06 -8.789048138169164e-07 -2.49324614287616e-08" pbc="F F F"
C        1.40510370       1.30120414      -1.83302429      -0.13541351      -0.13916999      -0.48746961       0.13202322       0.34411144      -0.26332954
C        0.23161220       1.63335839      -1.17556625      -0.13788720       0.45706262      -0.03590919       0.82598460       0.09591401      -0.53790510
C        2.36282588       2.30651701      -2.07274779      -0.05027859       0.41778579       0.57294071      -0.30994248       0.72696495       0.18531504
H        1.62576601       0.32659046      -2.26116980       0.08115565      -0.04647461       0.22032181      -0.36525968      -0.23174372       0.34437272
C        0.02154555       2.98075023      -0.76743687       0.09973068      -0.23386719      -0.10003255       1.31021428       0.22322223      -0.02102265
O       -0.80259034       0.81516162      -0.89338938       0.21527564       0.70527806      -0.03277138      -0.21302724      -1.61018884       0.71397418
N       -1.11633593       3.30936525      -0.11504204      -0.33697871       0.25442243      -0.07071000      -0.74988931      -0.41376787      -0.01534462
N        0.93150904       3.93912284      -0.95579708       0.05931504       0.07997940       0.22546735       0.77480376      -0.73019493      -0.86969668
H       -1.72578596       2.56563050       0.19794586      -0.04248109       0.12472695       0.06152274       0.14673594       0.29631406       0.01299174
H       -1.13863399       4.20879256       0.32074429       0.09618165      -0.17935612       0.03887418      -0.08824950       0.23717532       0.20866826
C        2.07243813       3.59275597      -1.63307362       0.04770781      -0.29468733      -0.39811200      -0.31432033       0.51765645       0.41049525
H        2.77551877       4.43674288      -1.81306805       0.11731526       0.04862130       0.11043125      -0.48808423      -0.66699177       0.17163020
H        3.28751382       2.10060478      -2.62085335      -0.14497867      -0.21406213      -0.12452360      -0.28338674       0.00876359       0.20590347
C       -0.62078468      -0.63536512      -0.90920209      -0.11909488      -0.46821139      -0.54873485       1.63883400       0.88346589       0.53102291
C       -1.84716379      -1.22864034      -0.38893122      -0.39011528      -0.16912209       0.27657429      -1.83784521      -1.33615756       0.04443018
H        0.24247334      -1.06817472      -0.29660457       0.14838078      -0.26237370       0.25874230      -0.61682940       1.33836377      -0.67482620
H       -0.44637158      -0.90809519      -1.93601030      -0.15583978       0.23416678       0.39420401       0.17557272      -0.33940351      -0.71890295
C       -2.94692985      -1.41396719      -1.25350608       0.46778096       0.23207078      -0.34329149      -1.07978892      -0.79534990       3.47536421
C       -1.92159719      -1.71781009       0.91828747       0.55280722      -0.22293853      -0.59603521      -0.88872242      -0.53466100       0.00717747
C       -4.11629595      -1.97430576      -0.69835391      -0.15629927       0.03031700       0.43675078       1.59300554       0.26557466       0.47900558
H       -2.92545912      -1.11489477      -2.24378378       0.00189480      -0.24007062       0.13927380       0.10151292       0.70117509      -2.06706905
C       -4.14603162      -2.44845793       0.62394048       0.26209640       0.47149712      -0.23126188      -0.44381148       0.64690691      -0.95570594
H       -5.02263453      -2.02744593      -1.23602892       0.01527941      -0.11378310       0.06511695      -0.89366221      -0.15553010      -0.95973921
C       -3.08485203      -2.31915853       1.47101259      -0.28779622      -0.53459469      -0.05919634       1.63289285       0.23932675      -0.22865689
H       -5.04731204      -2.87081321       0.99071261       0.20278336      -0.06477831       0.00856859      -0.93651247      -0.47558782       0.26909369
H       -3.14850312      -2.74114043       2.49213222      -0.17712422      -0.06626510       0.05064368       0.34739292       0.45896304      -0.58971512
H       -1.01411051      -1.73425915       1.46723748      -0.23341692       0.19382651       0.16861555       0.83035880       0.30567947       0.84246945
27
Lattice="50.0 0.0 0.0 0.0 50.0 0.0 0.0 0.0 50.0" Properties=species:S:1:pos:R:3:momenta:R:3:forces:R:3 dihedrals="199.6 170.49 260.67" energy=-17660.716796875 free_energy=-17660.716796875 stress="4.6721088438062e-06 8.523309702468396e-07 7.298373816411186e-07 8.523309702468396e-07 3.822571272849018e-07 -8.079338726929564e-07 7.298373816411186e-07 -8.079338726929564e-07 8.869720318216423e-07" pbc="F F F"
C        1.38218873       1.28813060      -1.82094958      -0.25516324       0.15312120       0.19855598      -0.53564477       1.39160240      -0.37676102
C        0.18292794       1.64665356      -1.17471541       0.20991892      -0.16229598       0.23308740       2.29595375      -0.66552663      -0.90040362
C        2.34182126       2.31562067      -2.09421138       0.23059440      -0.19504777      -0.17282579      -0.41472626      -1.58624196       0.93455464
H        1.55870276       0.32367018      -2.28351433      -0.06746355       0.04497498      -0.14123899      -0.14341000      -0.31270993       0.37161940
C        0.04443270       2.98065184      -0.74893526       0.14528861       0.34899688      -0.44934521       0.61467445       0.97213602      -0.40315306
O       -0.83373536       0.81643174      -0.86917243      -0.76459662       0.83495171      -0.06331570      -0.52361333      -0.12168297       0.61815870
N       -1.12479599       3.35763712      -0.16033592      -0.01679004       0.14113365       0.08131322      -1.19766676       0.30804777       1.77278864
N        0.94988854       3.92750379      -0.96149168      -0.05044342      -0.05425377       0.11584074       0.87431490      -0.67865443      -0.38609564
H       -1.56295555       2.57455890       0.32914844      -0.09919883       0.03193983       0.14067920      -0.06807087       0.38976860      -0.25153169
H       -1.06061217       4.19131195       0.45586705       0.03532560      -0.03659559      -0.09927860       0.14173084      -0.81655341      -0.89887631
C        2.09401205       3.56158800      -1.60756153       0.03251225      -0.03222608       0.22419708      -1.11190462       1.11937726       0.17868581
H        2.76967567       4.37950409      -1.81589413      -0.08931653      -0.10748479       0.05047858       0.29010108       0.16775343       0.15426032
H        3.31741380       2.05262072      -2.48972905      -0.10571889      -0.20953658      -0.05498555      -0.11543962       0.08196316      -0.35192773
C       -0.59392599      -0.57659395      -0.93748753       0.66739560      -0.72953064       0.69455405       0.64257634      -0.48806015       1.72659719
C       -1.78976765      -1.29545882      -0.37972194       0.66973366       0.32578017      -0.52386956      -0.98163587       0.85156047      -0.84245014
H        0.29821875      -0.91410701      -0.30493593      -0.28279020      -0.02759476      -0.16586863      -0.73621732       0.80274296      -0.98338407
H       -0.44446977      -0.80467400      -1.96605798      -0.04268625       0.17599221      -0.45830918       0.37852323      -0.69130003      -1.13419139
C       -2.95295926      -1.41303914      -1.16225777       0.00778222      -0.28298670       0.82294099      -1.54962742       0.20164934      -1.38498449
C       -1.85833508      -1.68169036       0.93308568      -0.18107882       0.12680573      -0.07247313      -1.13221347      -2.39749956       1.76010966
C       -4.17099888      -2.01378317      -0.72690095       0.39761853      -0.19081270      -0.12692362       0.79551244       0.60651612      -0.29547971
H       -2.98011538      -0.93573483      -2.18309700      -0.01588177       0.25665825      -0.19375780       0.30836347      -0.69543672       0.96019870
C       -4.20099903      -2.45351286       0.59724177       0.01993722      -0.44633124      -0.20738483      -0.03245592      -0.35483527       0.82618350
H       -5.07589525      -2.11057347      -1.39045999      -0.19750858       0.07430733       0.09391730       1.18209994       0.25890875       0.67267668
C       -3.05284490      -2.34845115       1.39672020      -0.08217443       0.32674393      -0.03371394       0.85075378       1.01663256      -0.59022248
H       -5.11656471      -2.85866444       1.07994262      -0.06870201      -0.04391218       0.23211706       0.59192419       0.13226041      -0.61875606
H       -3.08142396      -2.75129931       2.40755635      -0.24492151      -0.08051151      -0.18321175       0.04175331       0.12440154       0.01021767
H       -0.98817350      -1.70485777       1.62268307       0.14832789      -0.24228568       0.05882062      -0.46565589       0.38318035      -0.56783408
