27
Lattice="50.0 0.0 0.0 0.0 50.0 0.0 0.0 0.0 50.0" Properties=species:S:1:pos:R:3:momenta:R:3:forces:R:3 dihedrals="199.6 170.49 260.67" energy=-174.27016142184925 free_energy=-174.27016142184925 stress="-3.2027218336895064e-07 9.595721013890805e-08 -1.7703111228957415e-07 9.595721013890805e-08 -5.111916750624565e-07 1.2255241325154265e-08 -1.7703111228957415e-07 1.2255241325154265e-08 2.570720467823833e-07" pbc="F F F"
C        1.38963128       1.30881270      -1.84807340       0.00000000       0.00000000       0.00000000       1.86013609      -0.54260343      -0.21604980
C        0.25134028       1.61695797      -1.17378268       0.00000000       0.00000000       0.00000000      -0.39972014       0.57443281       0.27496505
C        2.34174165       2.30279245      -2.05237245       0.00000000       0.00000000       0.00000000      -0.19696488       1.25916697      -0.37605058
H        1.74670811       0.30770268      -2.08813647       0.00000000       0.00000000       0.00000000      -0.56243323      -0.24617958      -0.11285653
C        0.05520299       2.95681402      -0.72831891       0.00000000       0.00000000       0.00000000       0.30468705       1.09971290      -0.18578059
O       -0.81096017       0.83736826      -0.91802960       0.00000000       0.00000000       0.00000000      -0.65508205      -0.88784909       0.60801311
N       -1.10099896       3.26937222      -0.10832467       0.00000000       0.00000000       0.00000000       1.11279834      -1.25116674      -0.85766070
N        0.91391981       3.92808926      -0.99610811       0.00000000       0.00000000       0.00000000      -0.14585302      -0.15914128       0.02895381
H       -1.73558122       2.55577479       0.18972739       0.00000000       0.00000000       0.00000000      -0.56990780      -0.33594151       0.19663484
H       -1.19481836       4.21421525       0.12159553       0.00000000       0.00000000       0.00000000      -0.42109953       1.68769553       0.62922898
C        2.07766676       3.62803433      -1.63042725       0.00000000       0.00000000       0.00000000      -0.86825536      -1.91368622       0.54034896
H        2.81650095       4.38833396      -1.67628005       0.00000000       0.00000000       0.00000000       0.49931875       0.80945752      -0.23069735
H        3.23433192       2.10381485      -2.63100063       0.00000000       0.00000000       0.00000000       0.24788251      -0.01321071       0.05031279
C       -0.57931678      -0.63039174      -0.91326348       0.00000000       0.00000000       0.00000000      -1.49545714       0.32512891      -4.17578514
C       -1.77506852      -1.28327640      -0.40022312       0.00000000       0.00000000       0.00000000      -2.19082440      -0.81467737       0.78749255
H        0.20195626      -0.97701420      -0.35217348       0.00000000       0.00000000       0.00000000       2.57512343      -0.46027954       1.86905282
H       -0.31077873      -0.89430482      -2.04282024       0.00000000       0.00000000       0.00000000      -0.70029978       0.26707585       1.85994915
C       -3.00526392      -1.38331587      -1.13839590       0.00000000       0.00000000       0.00000000       1.24957530       0.73968439      -3.02059953
C       -1.88488065      -1.72681611       0.94414745       0.00000000       0.00000000       0.00000000       0.95781788       1.49124685       0.32203425
C       -4.15739837      -2.00672026      -0.71479091       0.00000000       0.00000000       0.00000000      -0.72309808      -0.42074752       0.19188199
H       -2.95735117      -1.01520162      -2.24735924       0.00000000       0.00000000       0.00000000      -0.06297135      -0.48214108       2.08346430
C       -4.19469156      -2.42753431       0.61887066       0.00000000       0.00000000       0.00000000      -1.67975896      -1.02828100      -0.47516700
H       -5.04818305      -2.24955496      -1.33679401       0.00000000       0.00000000       0.00000000       0.76400131       0.46750537       0.15785023
C       -3.08464301      -2.27809040       1.38882121       0.00000000       0.00000000       0.00000000       0.85520948       0.25367916       0.81345588
H       -5.07725553      -2.96292210       1.05906295       0.00000000       0.00000000       0.00000000       0.69516520       0.66020649      -0.55832975
H       -3.24228124      -2.56751763       2.40845989       0.00000000       0.00000000       0.00000000       0.38311464      -0.20862122       0.79338463
H       -1.09224915      -1.37255578       1.68160820       0.00000000       0.00000000       0.00000000      -0.83310425      -0.87046648      -0.99804637
27
Lattice="50.0 0.0 0.0 0.0 50.0 0.0 0.0 0.0 50.0" Properties=species:S:1:pos:R:3:momenta:R:3:forces:R:3 dihedrals="199.6 170.49 260.67" energy=-174.9073931539022 free_energy=-174.9073931539022 stress="-1.384936590686537e-07 -1.0486472271929819e-07 -2.7775328977502385e-07 -1.0486472271929819e-07 5.876448408365274e-07 2.099813621652915e-07 -2.7775328977502385e-07 2.099813621652915e-07 3.3838366576999344e-07" pbc="F F F"
C        1.42892593       1.29755280      -1.83775205      -0.14267358       0.17777494      -0.42167886       0.41696835       0.05478735      -0.81775172
C        0.26158406       1.62588795      -1.16759503      -0.24271061      -0.18215011       0.31376511      -0.44583893      -0.02094542       0.21069930
C        2.37322562       2.30229481      -2.10067409       0.05023658      -0.06154166       0.35396890      -0.22824823       0.88293373       0.63408228
H        1.59867600       0.33692905      -2.33077214       0.09974399       0.03784113       0.01773387      -0.21164459      -0.16861505       0.36964064
C        0.03323936       3.00217754      -0.76337066      -0.31398122       0.03242063      -0.20758967       0.59143018       0.33246449      -0.04923875
O       -0.81800432       0.80367630      -0.88813041       0.56541971       0.22584854      -0.09968463       0.30058020       0.31727565      -0.09303364
N       -1.09284195       3.30016174      -0.10317962       0.07438922       0.19358071       0.00869014      -0.36223419       0.08442301       0.16978603
N        0.92658395       3.95956481      -0.97379323       0.04409278       0.24485388       0.32884321      -0.07890873      -0.80734742      -0.09710018
H       -1.80195352       2.56587847       0.01535890      -0.07798744       0.14844321      -0.02863015       0.20395419       0.49725057       0.08903077
H       -1.21399489       4.26571564       0.24394013       0.01584702      -0.21930453      -0.07539024       0.09476075      -0.79315631      -0.34211365
C        2.06405053       3.59892705      -1.63016766       0.04211966      -0.10917147      -0.61449582       0.34520175       0.24460090      -0.41671844
H        2.74792888       4.44964476      -1.83404993       0.13630396       0.12343194       0.03852743      -0.31521334      -0.56616514       0.18187432
H        3.33438243       2.15553752      -2.61210763      -0.07819503      -0.12288798      -0.11656358      -0.42733178      -0.12206506       0.14968217
C       -0.63985541      -0.66568876      -0.90634209      -0.48075023      -0.09459600      -0.40386618       1.41891477      -0.14239075      -1.34806698
C       -1.84608520      -1.27070237      -0.38356749      -0.09525492       0.09288627       0.30574311      -1.25890338      -0.69361779       0.50254152
H        0.23985613      -0.96453962      -0.31762122       0.21422691      -0.38152855       0.29091642       0.06819642       0.19937317       0.22031973
H       -0.42067777      -1.04445041      -1.96074005      -0.13084218       0.21772069       0.33007434      -0.34361852       0.55741143       0.76139496
C       -2.96998706      -1.39719132      -1.23370435       0.28672097       0.33025756      -0.53312233       0.18581431      -0.35959151       2.06042374
C       -1.92327747      -1.70916433       0.95440111       0.38464218      -0.43707673      -0.24873438      -0.35801456      -0.38312968      -1.06515664
C       -4.10509863      -1.99127272      -0.71878425      -0.04087406       0.10350836       0.08596531      -0.23135700      -0.26065205       1.00696957
H       -2.93727787      -0.96128849      -2.18525523      -0.07729379      -0.28355849       0.21655881       0.11678091       0.53538906      -1.50742277
C       -4.17624525      -2.44864629       0.62521715       0.51778472       0.27871828      -0.08182957       0.89644085       0.77793774      -0.79031787
H       -5.00854153      -2.08472983      -1.29704540      -0.01814465      -0.09817682       0.18549855      -0.29358717      -0.05590404      -0.44031098
C       -3.08259922      -2.28580335       1.47498951      -0.44850262      -0.30955203       0.20932293       0.04603701      -0.21373606       0.07536356
H       -5.07695998      -2.87741502       0.99198223       0.20358761      -0.01404054       0.00308126      -0.78578041      -0.43587740       0.28172661
H       -3.12116918      -2.66441012       2.51277915      -0.26543359      -0.01556159       0.08169869       0.01820212       0.29969567      -0.48233178
H       -0.99342918      -1.74559525       1.47123563      -0.22247142       0.12186038       0.06119734       0.63739899       0.23965092       0.73602819
27
Lattice="50.0 0.0 0.0 0.0 50.0 0.0 0.0 0.0 50.0" Properties=species:S:1:pos:R:3:momenta:R:3:forces:R:3 dihedrals="199.6 170.49 260.67" energy=-174.85524005810086 free_energy=-174.85524005810086 stress="4.6805327116894524e-07 2.860473506148883e-07 5.610257708146231e-07 2.860473506148883e-07 2.7165538656312786e-07 -1.5144217597101177e-07 5.610257708146231e-07 -1.5144217597101177e-07 -6.487489049226019e-08" pbc="F F F"
C        1.40124287       1.28739256      -1.86590545       0.49584840      -0.24242357       0.13266501       0.40854894       0.73413127       0.01860570
C        0.25070481       1.65880156      -1.17868515      -0.79109064      -0.00134604      -0.00544533      -0.15359774      -1.25751815      -0.19322356
C        2.32248659       2.31933598      -2.10523605      -0.20604728       0.02531006      -0.55214011       0.27307858      -0.05411807       0.37963538
H        1.59371325       0.26417768      -2.17555880       0.04633292      -0.00501459      -0.12405825      -0.05204054      -0.10200779      -0.05990233
C        0.03829429       3.00406189      -0.78604336       0.05908395       0.04336087       0.10421475       0.66612263       0.68880175      -0.06977216
O       -0.78514394       0.81997394      -0.84199786      -0.13289689      -0.05982932       0.53337019      -0.43602607      -0.02887323      -0.14613386
N       -1.06955517       3.32682457      -0.12219086       0.48058743       0.13296311      -0.33291723      -0.89261455       0.83273162       0.39358589
N        0.95101090       3.92624904      -0.98964610      -0.09267891       0.24506833      -0.09022090      -0.53487885       0.46264412       0.39124019
H       -1.81794173       2.64132263      -0.05971101      -0.05131288      -0.08203980       0.00825073      -0.08508191       0.10001286       0.14634960
H       -1.24432459       4.32664194       0.10809009      -0.12525370       0.19836981       0.02994096       0.33884479      -1.06908503      -0.29736406
C        2.06851961       3.61084994      -1.64180892       0.38572217      -0.19413054       0.08922110       0.22603143       0.30652500      -0.65574968
H        2.72740579       4.47462257      -1.86639552      -0.20124872      -0.09570353      -0.03863420      -0.19139131      -0.58432954       0.21437625
H        3.30704777       2.18236129      -2.53385297      -0.02272832      -0.04993227       0.07648173       0.03695890      -0.34267864      -0.30490824
C       -0.61947447      -0.66741933      -0.90914760       0.15402732       0.30273542      -0.34203514       1.78051373       0.44581054       2.85348417
C       -1.84323740      -1.31862145      -0.35884434       0.70835639      -0.41720257       0.33853094       0.42372358       0.36572656      -0.17541778
H        0.38990485      -0.87103904      -0.33623680       0.10706328      -0.05453167       0.12195228      -1.78700314       0.03119385      -0.55001714
H       -0.44248441      -1.02607351      -1.87322110      -0.05132220       0.00603327       0.20468581       0.17122848      -0.35487084      -2.17879609
C       -2.97108376      -1.40615926      -1.18056171       0.46619713      -0.25739004       0.70076336      -0.37115200      -0.17737679      -0.33688358
C       -1.89139242      -1.74618643       0.96378938       0.19445966       0.93277633      -0.49812423      -0.39992185      -0.14875190       0.17744217
C       -4.16538805      -1.97224687      -0.72239371      -0.41485761      -0.10607263       0.01523968       0.48015334      -0.18080584       0.41484321
H       -2.88183184      -1.05641165      -2.21777705      -0.08087935       0.24733278      -0.31703725      -0.01740066       0.01178606       0.29743292
C       -4.20286907      -2.45346295       0.60845840      -0.40879660      -0.24078659      -0.03593657       0.29319254       0.20188710       0.17303128
H       -5.01199464      -2.06352529      -1.41741163      -0.18868822       0.12748341      -0.02783468       0.13534786       0.00848219       0.39088526
C       -3.07760722      -2.30023643       1.46789199      -0.41240738      -0.12520969      -0.05999379       0.00693942       0.30396244      -0.90965944
H       -5.12127343      -2.92943157       0.97471576      -0.19513600      -0.06168080       0.15503281       0.28102963       0.11636423      -0.03184860
H       -3.04882936      -2.55966837       2.52108952      -0.03725709      -0.09040960      -0.15114757      -0.44875086      -0.25177523       0.11141409
H       -0.99961611      -1.61929856       1.58432203       0.31492314      -0.17773016       0.06517590      -0.15185436      -0.05786855      -0.05264959
